 Gaussian 16, Revision C.01,
 Gaussian 16:  ES64L-G16RevC.01  3-Jul-2019

 --------------------
 # hf/sto-3g opt freq
 --------------------

 --
 --
 --
 Symbolic Z-matrix:
 Charge =  0 Multiplicity = 2

 SCF Done:  E(UHF) =  -151.535844954     A.U. after   14 cycles
 SCF Done:  E(UHF) =  -151.543383226     A.U. after   14 cycles
 SCF Done:  E(UHF) =  -151.544386763     A.U. after   13 cycles
 SCF Done:  E(UHF) =  -151.544403358     A.U. after   11 cycles
 Optimization completed.
    -- Stationary point found.
 Normal termination of Gaussian 16 at Tue May  3 16:48:03 2022.

 ---------------------------------------------------------------
 #N Geom=AllCheck Guess=TCheck SCRF=Check GenChk UHF/STO-3G Freq
 ---------------------------------------------------------------

 Structure from the checkpoint file:  "/mnt/lustre/scratch/nvme/SLURM/122918/uscqfafr.bpjI8otnWK/Gau-3812940.chk"
 --
 --
 --
 Charge =  0 Multiplicity = 2

                         Standard orientation:
 ---------------------------------------------------------------------
 Center     Atomic      Atomic             Coordinates (Angstroms)
 Number     Number       Type             X           Y           Z
 ---------------------------------------------------------------------
      1          6           0        1.082442   -0.558238    0.000000
      2          6           0        0.000000    0.545288    0.000000
      3          1           0        2.071774   -0.110387    0.000000
      4          1           0        0.986348   -1.185362    0.880818
      5          1           0        0.986348   -1.185362   -0.880818
      6          8           0       -1.345546    0.023956    0.000000
      7          1           0        0.112624    1.183580    0.882263
      8          1           0        0.112624    1.183580   -0.882263
 ---------------------------------------------------------------------

 SCF Done:  E(UHF) =  -151.544403358     A.U. after    1 cycles

 The electronic state is 2-A".
 Alpha  occ. eigenvalues --  -20.28418 -11.09198 -11.04443  -1.29721  -0.96621
 Alpha  occ. eigenvalues --   -0.79919  -0.62976  -0.56943  -0.52095  -0.51938
 Alpha  occ. eigenvalues --   -0.46777  -0.43629  -0.37596
 Alpha virt. eigenvalues --    0.56698   0.63430   0.66566   0.70343   0.74757
 Alpha virt. eigenvalues --    0.76158   0.76938
  Beta  occ. eigenvalues --  -20.25570 -11.09562 -11.04427  -1.15994  -0.94963
  Beta  occ. eigenvalues --   -0.78502  -0.59536  -0.55989  -0.51277  -0.48121
  Beta  occ. eigenvalues --   -0.43530  -0.33402
  Beta virt. eigenvalues --    0.35243   0.59171   0.64455   0.66215   0.71491
  Beta virt. eigenvalues --    0.74991   0.76183   0.77719

 Mulliken charges and spin densities:
               1          2
     1  C   -0.187459   0.008171
     2  C   -0.024356  -0.135519
     3  H    0.063625  -0.002683
     4  H    0.065028  -0.001049
     5  H    0.065028  -0.001049
     6  O   -0.117568   1.058861
     7  H    0.067852   0.036634
     8  H    0.067852   0.036634
 Sum of Mulliken charges =  -0.00000   1.00000

 Dipole moment (field-independent basis, Debye):
    X=              1.2225    Y=              0.4634    Z=              0.0000  Tot=              1.3074
 Quadrupole moment (field-independent basis, Debye-Ang):
   XX=            -19.8430   YY=            -17.5712   ZZ=            -16.8565
   XY=              0.0099   XZ=              0.0000   YZ=             -0.0000

  Exact polarizability:      13.521       0.467      11.287      -0.000       0.000      12.920
 Approx polarizability:      10.971       1.307       8.718      -0.000       0.000       9.504

                      1                      2                      3
                     A"                     A'                     A"
 Frequencies --    207.9249               448.3039               470.7545
 Red. masses --      1.2014                 3.2385                 1.2248
 Frc consts  --      0.0306                 0.3835                 0.1599
 IR Inten    --      0.0752                 2.5758                25.1372
 Raman Activ --      2.0769                 3.5874                72.4354

                      4                      5                      6
                     A"                     A'                     A'
 Frequencies --   1012.2511              1065.4279              1265.3530
 Red. masses --      1.0433                 2.2224                 2.2435
 Frc consts  --      0.6298                 1.4863                 2.1164
 IR Inten    --      0.0966                 0.9207                 5.0094
 Raman Activ --      6.8749                 9.2771                 9.6185

                      7                      8                      9
                     A'                     A"                     A'
 Frequencies --   1295.2154              1478.7178              1658.5429
 Red. masses --      1.9318                 1.3042                 1.5367
 Frc consts  --      1.9094                 1.6802                 2.4906
 IR Inten    --      2.4667                 1.6182                12.1693
 Raman Activ --     11.3041                 6.7137                 9.7764

                     10                     11                     12
                     A'                     A'                     A"
 Frequencies --   1729.4711              1770.4357              1822.7443
 Red. masses --      1.3271                 1.1095                 1.0468
 Frc consts  --      2.3387                 2.0489                 2.0491
 IR Inten    --      1.3093                 0.9930                 1.0548
 Raman Activ --      6.9711                20.4552                15.0936

                     13                     14                     15
                     A'                     A'                     A'
 Frequencies --   1832.3351              3566.0321              3572.3189
 Red. masses --      1.0567                 1.0629                 1.0403
 Frc consts  --      2.0903                 7.9635                 7.8220
 IR Inten    --      2.2493                 2.8163                 0.3140
 Raman Activ --     13.6447                63.3800                54.5121

                     16                     17                     18
                     A"                     A'                     A"
 Frequencies --   3677.7551              3755.7468              3759.9567
 Red. masses --      1.1113                 1.1092                 1.1093
 Frc consts  --      8.8563                 9.2186                 9.2395
 IR Inten    --      3.9390                 0.6165                 1.0724
 Raman Activ --     66.5999                28.4787                21.2460

 - Thermochemistry -
 -------------------
 Temperature   298.150 Kelvin.  Pressure   1.00000 Atm.
 Atom     1 has atomic number  6 and mass  12.00000

 Molecular mass:    45.03404 amu.
 Principal axes and moments of inertia in atomic units:
                           1         2         3
     Eigenvalues --    48.16150 195.32874 221.11551
           X            0.96756   0.25266   0.00000
           Y           -0.25266   0.96756   0.00000
           Z           -0.00000  -0.00000   1.00000
 This molecule is an asymmetric top.
 Rotational symmetry number  1.
 Rotational temperatures (Kelvin)      1.79841     0.44343     0.39171
 Rotational constants (GHZ):          37.47270     9.23951     8.16198
 Zero-point vibrational energy     205693.6 (Joules/Mol)
                                   49.16195 (Kcal/Mol)
 Warning -- explicit consideration of   3 degrees of freedom as
           vibrations may cause significant error
 Vibrational temperatures:    299.16   645.01   677.31  1456.40  1532.91
          (Kelvin)           1820.56  1863.53  2127.55  2386.27  2488.32
                             2547.26  2622.52  2636.32  5130.72  5139.77
                             5291.47  5403.68  5409.74

 Zero-point correction=                           0.078345 (Hartree/Particle)
 Thermal correction to Energy=                    0.082339
 Thermal correction to Enthalpy=                  0.083283
 Thermal correction to Gibbs Free Energy=         0.052482
 Sum of electronic and zero-point Energies=           -151.466059
 Sum of electronic and thermal Energies=              -151.462064
 Sum of electronic and thermal Enthalpies=            -151.461120
 Sum of electronic and thermal Free Energies=         -151.491921

                     E (Thermal)             CV                S
                      KCal/Mol        Cal/Mol-Kelvin    Cal/Mol-Kelvin
 Total                   51.669             11.691             64.826
 Electronic               0.000              0.000              1.377
 Translational            0.889              2.981             37.340
 Rotational               0.889              2.981             22.258
 Vibrational             49.891              5.729              3.851
 Vibration     1          0.641              1.829              2.062
 Vibration     2          0.807              1.365              0.801
 Vibration     3          0.828              1.315              0.735

 Optimization completed.
    -- Stationary point found.
 Normal termination of Gaussian 16 at Tue May  3 16:48:04 2022.
