 Gaussian 16, Revision C.01,
 Gaussian 16:  ES64L-G16RevC.01  3-Jul-2019

 ---------------------
 #p hf/sto-3g opt freq
 ---------------------

 ---
 ---
 ---
 Symbolic Z-matrix:
 Charge =  0 Multiplicity = 1

 SCF Done:  E(RHF) =  -1.11615144908     A.U. after    1 cycles
 SCF Done:  E(RHF) =  -1.11733052458     A.U. after    1 cycles
 SCF Done:  E(RHF) =  -1.11750588484     A.U. after    1 cycles
 Optimization completed.
    -- Stationary point found.
 Normal termination of Gaussian 16 at Tue May  3 19:00:37 2022.

 ---------------------------------------------------------------
 #P Geom=AllCheck Guess=TCheck SCRF=Check GenChk RHF/STO-3G Freq
 ---------------------------------------------------------------

 Structure from the checkpoint file:  "/mnt/lustre/scratch/nvme/SLURM/123382/uscqfafr.p2N5ZJYqPN/Gau-3819223.chk"
 ---
 ---
 ---
 Charge =  0 Multiplicity = 1

                         Standard orientation:
 ---------------------------------------------------------------------
 Center     Atomic      Atomic             Coordinates (Angstroms)
 Number     Number       Type             X           Y           Z
 ---------------------------------------------------------------------
      1          1           0        0.000000    0.000000    0.356124
      2          1           0        0.000000    0.000000   -0.356124
 ---------------------------------------------------------------------

 SCF Done:  E(RHF) =  -1.11750588484     A.U. after    1 cycles

 The electronic state is 1-SGG.
 Alpha  occ. eigenvalues --   -0.59021
 Alpha virt. eigenvalues --    0.70063

 Mulliken charges:
               1
     1  H    0.000000
     2  H    0.000000
 Sum of Mulliken charges =   0.00000

 Dipole moment (field-independent basis, Debye):
    X=              0.0000    Y=              0.0000    Z=              0.0000  Tot=              0.0000
 Quadrupole moment (field-independent basis, Debye-Ang):
   XX=             -1.8430   YY=             -1.8430   ZZ=             -1.4474
   XY=              0.0000   XZ=             -0.0000   YZ=              0.0000

  Exact polarizability:       0.000       0.000       0.000      -0.000       0.000       2.888
 Approx polarizability:       0.000      -0.000      -0.000      -0.000      -0.000       2.598

                      1
                     SGG
 Frequencies --   5480.9529
 Red. masses --      1.0078
 Frc consts  --     17.8381
 IR Inten    --      0.0000
 Raman Activ --     20.6330

 - Thermochemistry -
 -------------------
 Temperature   298.150 Kelvin.  Pressure   1.00000 Atm.
 Atom     1 has atomic number  1 and mass   1.00783

 Molecular mass:     2.01565 amu.
 Principal axes and moments of inertia in atomic units:
                           1         2         3
     Eigenvalues --     0.00000   0.91288   0.91288
           X           -0.00000   1.00000  -0.00000
           Y            0.00000   0.00000   1.00000
           Z            1.00000   0.00000  -0.00000
 This molecule is a prolate symmetric top.
 Rotational symmetry number  2.
 Rotational temperature (Kelvin)     94.87964
 Rotational constant (GHZ):        1976.970906
 Zero-point vibrational energy      32783.4 (Joules/Mol)
                                    7.83542 (Kcal/Mol)
 Vibrational temperatures:   7885.87
          (Kelvin)

 Zero-point correction=                           0.012487 (Hartree/Particle)
 Thermal correction to Energy=                    0.014847
 Thermal correction to Enthalpy=                  0.015791
 Thermal correction to Gibbs Free Energy=         0.001079
 Sum of electronic and zero-point Energies=             -1.105019
 Sum of electronic and thermal Energies=                -1.102659
 Sum of electronic and thermal Enthalpies=              -1.101715
 Sum of electronic and thermal Free Energies=           -1.116427

                     E (Thermal)             CV                S
                      KCal/Mol        Cal/Mol-Kelvin    Cal/Mol-Kelvin
 Total                    9.317              4.968             30.965
 Electronic               0.000              0.000              0.000
 Translational            0.889              2.981             28.080
 Rotational               0.592              1.987              2.885
 Vibrational              7.835              0.000              0.000

 Optimization completed.
    -- Stationary point found.
 Normal termination of Gaussian 16 at Tue May  3 19:00:38 2022.
