 Gaussian 16, Revision C.01,
 Gaussian 16:  ES64L-G16RevC.01  3-Jul-2019

 --------------------
 # hf/sto-3g opt freq
 --------------------

 --
 --
 --
 Symbolic Z-matrix:
 Charge =  0 Multiplicity = 2

 SCF Done:  E(UHF) =  -151.492252475     A.U. after   15 cycles
 SCF Done:  E(UHF) =  -151.503626809     A.U. after   15 cycles
 SCF Done:  E(UHF) =  -151.504493889     A.U. after   13 cycles
 SCF Done:  E(UHF) =  -151.504551694     A.U. after   11 cycles
 SCF Done:  E(UHF) =  -151.504560689     A.U. after   11 cycles
 SCF Done:  E(UHF) =  -151.504563473     A.U. after   11 cycles
 SCF Done:  E(UHF) =  -151.504564676     A.U. after   10 cycles
 SCF Done:  E(UHF) =  -151.504566077     A.U. after   11 cycles
 SCF Done:  E(UHF) =  -151.504566403     A.U. after   10 cycles
 SCF Done:  E(UHF) =  -151.504566599     A.U. after    9 cycles
 SCF Done:  E(UHF) =  -151.504566631     A.U. after    9 cycles
 Optimization completed.
    -- Stationary point found.
 Normal termination of Gaussian 16 at Tue May  3 16:47:27 2022.

 ---------------------------------------------------------------
 #N Geom=AllCheck Guess=TCheck SCRF=Check GenChk UHF/STO-3G Freq
 ---------------------------------------------------------------

 Structure from the checkpoint file:  "/mnt/lustre/scratch/nvme/SLURM/122918/uscqfafr.vApF05R68J/Gau-3812891.chk"
 --
 --
 --
 Charge =  0 Multiplicity = 2

                         Standard orientation:
 ---------------------------------------------------------------------
 Center     Atomic      Atomic             Coordinates (Angstroms)
 Number     Number       Type             X           Y           Z
 ---------------------------------------------------------------------
      1          6           0        1.255619   -0.167582    0.010528
      2          6           0       -0.099604    0.511843   -0.114196
      3          1           0        2.037056    0.488949   -0.361311
      4          1           0        1.485986   -0.416193    1.045611
      5          8           0       -1.192021   -0.349063    0.033503
      6          1           0       -0.202568    1.514162    0.307052
      7          1           0       -1.990060    0.226788   -0.069212
      8          1           0        1.269659   -1.086776   -0.568153
 ---------------------------------------------------------------------

 SCF Done:  E(UHF) =  -151.504566631     A.U. after    1 cycles

 The electronic state is 2-A.
 Alpha  occ. eigenvalues --  -20.27947 -11.04933 -11.03732  -1.30056  -0.96127
 Alpha  occ. eigenvalues --   -0.77813  -0.63014  -0.56864  -0.51830  -0.48708
 Alpha  occ. eigenvalues --   -0.47568  -0.41159  -0.26593
 Alpha virt. eigenvalues --    0.56196   0.63870   0.66879   0.70966   0.73927
 Alpha virt. eigenvalues --    0.75799   0.82423
  Beta  occ. eigenvalues --  -20.27712 -11.04036 -11.02043  -1.28325  -0.93915
  Beta  occ. eigenvalues --   -0.72395  -0.61932  -0.52671  -0.51133  -0.47803
  Beta  occ. eigenvalues --   -0.42218  -0.38847
  Beta virt. eigenvalues --    0.32763   0.57804   0.67187   0.68237   0.72805
  Beta virt. eigenvalues --    0.75356   0.77142   0.85036

 Mulliken charges and spin densities:
               1          2
     1  C   -0.196215  -0.118638
     2  C    0.057153   1.068683
     3  H    0.064528   0.012831
     4  H    0.064693   0.045866
     5  O   -0.284059   0.043152
     6  H    0.035884  -0.061341
     7  H    0.187395  -0.003641
     8  H    0.070622   0.013089
 Sum of Mulliken charges =   0.00000   1.00000

 Dipole moment (field-independent basis, Debye):
    X=             -0.2428    Y=              1.2486    Z=              0.0185  Tot=              1.2721
 Quadrupole moment (field-independent basis, Debye-Ang):
   XX=            -15.4396   YY=            -17.9322   ZZ=            -18.0095
   XY=             -1.8821   XZ=              0.2696   YZ=              0.2799

  Exact polarizability:      17.552      -0.324      12.187      -0.084       0.439       7.576
 Approx polarizability:      12.204       0.235      10.795      -0.111       0.174       6.124

                      1                      2                      3
                      A                      A                      A
 Frequencies --    139.9538               348.5358               430.4714
 Red. masses --      1.1916                 1.1108                 2.8735
 Frc consts  --      0.0138                 0.0795                 0.3137
 IR Inten    --      1.9047                85.5086                 6.7068
 Raman Activ --      0.2440                 7.6514                 0.5226

                      4                      5                      6
                      A                      A                      A
 Frequencies --    738.9763              1065.2159              1213.9074
 Red. masses --      1.2259                 2.1720                 1.4300
 Frc consts  --      0.3944                 1.4520                 1.2415
 IR Inten    --      4.2668                 2.4324                 4.6119
 Raman Activ --      2.6437                 5.4397                 1.9297

                      7                      8                      9
                      A                      A                      A
 Frequencies --   1239.5350              1371.8537              1566.4282
 Red. masses --      1.5313                 1.6857                 1.6145
 Frc consts  --      1.3862                 1.8692                 2.3340
 IR Inten    --     10.4684                 6.0815                87.2746
 Raman Activ --      2.1898                 7.1617                 8.1847

                     10                     11                     12
                      A                      A                      A
 Frequencies --   1689.9828              1755.7051              1814.8132
 Red. masses --      1.2578                 1.6067                 1.0495
 Frc consts  --      2.1165                 2.9180                 2.0365
 IR Inten    --      8.1002                11.7306                 2.0911
 Raman Activ --      2.5840                 7.3704                17.2087

                     13                     14                     15
                      A                      A                      A
 Frequencies --   1827.3302              3553.6389              3626.4826
 Red. masses --      1.0533                 1.0394                 1.0911
 Frc consts  --      2.0722                 7.7334                 8.4546
 IR Inten    --      1.5832                 0.7735                 7.5483
 Raman Activ --     16.8690                42.6327                34.4733

                     16                     17                     18
                      A                      A                      A
 Frequencies --   3721.5976              3751.7147              4246.3571
 Red. masses --      1.1058                 1.1087                 1.0678
 Frc consts  --      9.0238                 9.1940                11.3442
 IR Inten    --      0.8773                 0.2970                14.5934
 Raman Activ --     30.8952                29.0357                68.0829

 - Thermochemistry -
 -------------------
 Temperature   298.150 Kelvin.  Pressure   1.00000 Atm.
 Atom     1 has atomic number  6 and mass  12.00000

 Molecular mass:    45.03404 amu.
 Principal axes and moments of inertia in atomic units:
                           1         2         3
     Eigenvalues --    39.82416 198.38457 225.32468
           X            0.99925  -0.03858   0.00170
           Y            0.03841   0.99747   0.05976
           Z           -0.00400  -0.05965   0.99821
 This molecule is an asymmetric top.
 Rotational symmetry number  1.
 Rotational temperatures (Kelvin)      2.17491     0.43660     0.38440
 Rotational constants (GHZ):          45.31775     9.09719     8.00951
 Zero-point vibrational energy     203978.2 (Joules/Mol)
                                   48.75197 (Kcal/Mol)
 Warning -- explicit consideration of   3 degrees of freedom as
           vibrations may cause significant error
 Vibrational temperatures:    201.36   501.47   619.35  1063.22  1532.61
          (Kelvin)           1746.54  1783.41  1973.79  2253.74  2431.51
                             2526.07  2611.11  2629.12  5112.89  5217.70
                             5354.55  5397.88  6109.56

 Zero-point correction=                           0.077691 (Hartree/Particle)
 Thermal correction to Energy=                    0.082004
 Thermal correction to Enthalpy=                  0.082948
 Thermal correction to Gibbs Free Energy=         0.051538
 Sum of electronic and zero-point Energies=           -151.426875
 Sum of electronic and thermal Energies=              -151.422563
 Sum of electronic and thermal Enthalpies=            -151.421619
 Sum of electronic and thermal Free Energies=         -151.453029

                     E (Thermal)             CV                S
                      KCal/Mol        Cal/Mol-Kelvin    Cal/Mol-Kelvin
 Total                   51.458             12.591             66.108
 Electronic               0.000              0.000              1.377
 Translational            0.889              2.981             37.340
 Rotational               0.889              2.981             22.103
 Vibrational             49.681              6.630              5.288
 Vibration     1          0.615              1.913              2.805
 Vibration     2          0.726              1.578              1.173
 Vibration     3          0.792              1.404              0.857

 Optimization completed.
    -- Stationary point found.
 Normal termination of Gaussian 16 at Tue May  3 16:47:28 2022.
