 Gaussian 16, Revision C.01,
 Gaussian 16:  ES64L-G16RevC.01  3-Jul-2019

 --------------------
 # hf/sto-3g opt freq
 --------------------

 --
 --
 --
 Symbolic Z-matrix:
 Charge =  0 Multiplicity = 2

 SCF Done:  E(UHF) =  -151.470804580     A.U. after   15 cycles
 SCF Done:  E(UHF) =  -151.485936659     A.U. after   14 cycles
 SCF Done:  E(UHF) =  -151.487901508     A.U. after   14 cycles
 SCF Done:  E(UHF) =  -151.488127467     A.U. after   13 cycles
 SCF Done:  E(UHF) =  -151.488208547     A.U. after   13 cycles
 SCF Done:  E(UHF) =  -151.488226509     A.U. after   12 cycles
 SCF Done:  E(UHF) =  -151.488237807     A.U. after   12 cycles
 SCF Done:  E(UHF) =  -151.488245854     A.U. after   12 cycles
 SCF Done:  E(UHF) =  -151.488247935     A.U. after   11 cycles
 SCF Done:  E(UHF) =  -151.488248748     A.U. after   10 cycles
 SCF Done:  E(UHF) =  -151.488249210     A.U. after    9 cycles
 SCF Done:  E(UHF) =  -151.488249404     A.U. after   10 cycles
 Optimization completed.
    -- Stationary point found.
 Normal termination of Gaussian 16 at Tue May  3 16:47:53 2022.

 ---------------------------------------------------------------
 #N Geom=AllCheck Guess=TCheck SCRF=Check GenChk UHF/STO-3G Freq
 ---------------------------------------------------------------

 Structure from the checkpoint file:  "/mnt/lustre/scratch/nvme/SLURM/122918/uscqfafr.vWLUSxKFkO/Gau-3812917.chk"
 --
 --
 --
 Charge =  0 Multiplicity = 2

                         Standard orientation:
 ---------------------------------------------------------------------
 Center     Atomic      Atomic             Coordinates (Angstroms)
 Number     Number       Type             X           Y           Z
 ---------------------------------------------------------------------
      1          6           0        1.276316   -0.259167   -0.065137
      2          6           0       -0.023596    0.524397    0.042097
      3          1           0        2.206025    0.291247   -0.131037
      4          1           0        1.310400   -1.256780    0.353176
      5          8           0       -1.124137   -0.395202   -0.044014
      6          1           0       -0.049137    1.077724    0.993726
      7          1           0       -0.065888    1.274174   -0.759816
      8          1           0       -1.924628    0.183870    0.034300
 ---------------------------------------------------------------------

 SCF Done:  E(UHF) =  -151.488249404     A.U. after    1 cycles

 The electronic state is 2-A.
 Alpha  occ. eigenvalues --  -20.25896 -11.09083 -11.01428  -1.27872  -0.96442
 Alpha  occ. eigenvalues --   -0.78893  -0.61827  -0.59231  -0.52130  -0.48530
 Alpha  occ. eigenvalues --   -0.41841  -0.37260  -0.32377
 Alpha virt. eigenvalues --    0.55598   0.62361   0.67986   0.68849   0.71045
 Alpha virt. eigenvalues --    0.74518   0.82214
  Beta  occ. eigenvalues --  -20.25866 -11.09470 -10.98304  -1.27751  -0.91413
  Beta  occ. eigenvalues --   -0.73835  -0.61246  -0.57498  -0.50750  -0.47382
  Beta  occ. eigenvalues --   -0.40989  -0.35674
  Beta virt. eigenvalues --    0.32201   0.55765   0.65109   0.69654   0.70418
  Beta virt. eigenvalues --    0.72581   0.77383   0.84728

 Mulliken charges and spin densities:
               1          2
     1  C   -0.098308   1.233549
     2  C   -0.003373  -0.143519
     3  H    0.052292  -0.086662
     4  H    0.061074  -0.085987
     5  O   -0.284225   0.013459
     6  H    0.049535   0.048305
     7  H    0.051177   0.023456
     8  H    0.171828  -0.002600
 Sum of Mulliken charges =   0.00000   1.00000

 Dipole moment (field-independent basis, Debye):
    X=             -0.0909    Y=              1.5024    Z=              0.3321  Tot=              1.5414
 Quadrupole moment (field-independent basis, Debye-Ang):
   XX=            -15.7890   YY=            -17.9053   ZZ=            -18.1036
   XY=             -1.6733   XZ=             -0.0471   YZ=             -0.2628

  Exact polarizability:      16.957      -0.422      12.232      -0.333      -0.786       7.627
 Approx polarizability:      11.840      -0.053      10.725      -0.332      -0.561       6.128

                      1                      2                      3
                      A                      A                      A
 Frequencies --    156.7422               354.8780               438.4668
 Red. masses --      1.0826                 1.0884                 2.5636
 Frc consts  --      0.0157                 0.0808                 0.2904
 IR Inten    --      2.2216                81.7198                 4.8922
 Raman Activ --      3.1545                 6.7190                 0.5746

                      4                      5                      6
                      A                      A                      A
 Frequencies --    555.6070              1015.8139              1130.8670
 Red. masses --      1.2891                 1.4675                 2.0303
 Frc consts  --      0.2345                 0.8922                 1.5298
 IR Inten    --      7.5200                 2.8156                 3.6204
 Raman Activ --      2.4897                 3.7926                 5.1450

                      7                      8                      9
                      A                      A                      A
 Frequencies --   1227.9910              1344.2685              1423.7622
 Red. masses --      1.8593                 2.1917                 1.0533
 Frc consts  --      1.6519                 2.3335                 1.2580
 IR Inten    --     10.5015                 0.9362                 4.8206
 Raman Activ --      2.9669                 9.0132                11.3349

                     10                     11                     12
                      A                      A                      A
 Frequencies --   1558.4995              1695.3490              1784.2279
 Red. masses --      1.3911                 1.1539                 1.4846
 Frc consts  --      1.9908                 1.9540                 2.7847
 IR Inten    --     30.7367                11.9105                 4.0787
 Raman Activ --      7.8190                 7.4905                 6.3760

                     13                     14                     15
                      A                      A                      A
 Frequencies --   1833.6268              3508.4876              3617.2185
 Red. masses --      1.1053                 1.0633                 1.1053
 Frc consts  --      2.1896                 7.7113                 8.5208
 IR Inten    --      2.3116                 7.7780                12.4676
 Raman Activ --     13.1874                37.9398                35.1921

                     16                     17                     18
                      A                      A                      A
 Frequencies --   3628.1429              3803.7773              4227.7612
 Red. masses --      1.0550                 1.1212                 1.0679
 Frc consts  --      8.1824                 9.5581                11.2462
 IR Inten    --      0.2988                 0.1178                25.4019
 Raman Activ --     36.6639                25.5326                58.8501

 - Thermochemistry -
 -------------------
 Temperature   298.150 Kelvin.  Pressure   1.00000 Atm.
 Atom     1 has atomic number  6 and mass  12.00000

 Molecular mass:    45.03404 amu.
 Principal axes and moments of inertia in atomic units:
                           1         2         3
     Eigenvalues --    45.83488 185.52598 218.46896
           X            0.99933  -0.03645   0.00371
           Y            0.03657   0.99858  -0.03866
           Z           -0.00230   0.03877   0.99925
 This molecule is an asymmetric top.
 Rotational symmetry number  1.
 Rotational temperatures (Kelvin)      1.88969     0.46686     0.39646
 Rotational constants (GHZ):          39.37485     9.72770     8.26086
 Zero-point vibrational energy     199211.1 (Joules/Mol)
                                   47.61258 (Kcal/Mol)
 Warning -- explicit consideration of   4 degrees of freedom as
           vibrations may cause significant error
 Vibrational temperatures:    225.52   510.59   630.86   799.39  1461.53
          (Kelvin)           1627.07  1766.81  1934.10  2048.48  2242.33
                             2439.23  2567.11  2638.18  5047.93  5204.37
                             5220.09  5472.79  6082.81

 Zero-point correction=                           0.075875 (Hartree/Particle)
 Thermal correction to Energy=                    0.080252
 Thermal correction to Enthalpy=                  0.081196
 Thermal correction to Gibbs Free Energy=         0.049743
 Sum of electronic and zero-point Energies=           -151.412374
 Sum of electronic and thermal Energies=              -151.407997
 Sum of electronic and thermal Enthalpies=            -151.407053
 Sum of electronic and thermal Free Energies=         -151.438507

                     E (Thermal)             CV                S
                      KCal/Mol        Cal/Mol-Kelvin    Cal/Mol-Kelvin
 Total                   50.359             13.111             66.199
 Electronic               0.000              0.000              1.377
 Translational            0.889              2.981             37.340
 Rotational               0.889              2.981             22.145
 Vibrational             48.581              7.149              5.336
 Vibration     1          0.620              1.895              2.589
 Vibration     2          0.731              1.565              1.144
 Vibration     3          0.799              1.386              0.831
 Vibration     4          0.911              1.127              0.533

 Optimization completed.
    -- Stationary point found.
 Normal termination of Gaussian 16 at Tue May  3 16:47:54 2022.
